_database_code_ICSD                    19023
_chemical_name_systematic              'Dilithium Calcium Silicate'
_chemical_formula_structural           'Li2 Ca Si O4'
_chemical_formula_sum                  'Ca1 Li2 O4 Si1'
_structure_type                        'K3VO4'
_cell_length_a                         5.047
_cell_length_b                         5.047
_cell_length_c                         6.486
_cell_angle_alpha                      90.0
_cell_angle_beta                       90.0
_cell_angle_gamma                      90.0
_cell_volume                           165.21
_cell_formula_units_Z                  2.0
_cell_molecular_mass                   146.04
_symmetry_space_group_name_H-M         'I -4 2 m'
_symmetry_Int_Tables_number            121
_temperature_in_K                      None
_pressure_in_MPa                       None
_experimental_technique                'X-ray diffraction (single crystal)'
_type_of_data                          'Experimental' 
_citation_journal_full                 'Journal of Solid State Chemistry'
_citation_year                         1973
_citation_journal_volume               7
_citation_page_first                   422
_citation_page_last                    427
loop_
   _atom_site_label                    
   _atom_site_symmetry_multiplicity    
   _atom_site_Wyckoff_symbol           
   _atom_site_fract_x                  
   _atom_site_fract_y                  
   _atom_site_fract_z                  
   _atom_site_occupancy                
Ca 2 b 0.0 0.0 0.5 1.0 
Li 4 d 0.0 0.5 0.25 1.0 
O 8 i 0.189 0.189 0.142 1.0 
Si 2 a 0.0 0.0 0.0 1.0 
loop_
   _atom_type_symbol
   _atom_type_oxidation_number
Ca+2 2 
Li+1 1 
O-2 -2 
Si+4 4 
